5
	Energy:      -1.6842127
Ar        -1.47447        3.80430        0.62187
Ar        -3.02558        0.32565       -0.35038
Ar         1.94780        2.41210        2.37976
Ar        -0.93373        0.35647        2.53621
Ar         0.32775        0.85055       -0.93601
